LAMMPS description

1598    atoms
1368    bonds

3       atom types
2       bond types

-40.000000 40.000000 xlo xhi
-40.000000 40.000000 ylo yhi
-40.000000 40.000000 zlo zhi


Atoms

    1    1    1  19.29060   5.38239   0.56181
    2    1    2  21.55724   6.92901  -0.65075
    3    1    3  22.31278   7.44455  -1.05494
    4    1    3  23.06833   7.96009  -1.45913
    5    1    3  23.82388   8.47563  -1.86331
    6    1    3  24.57942   8.99117  -2.26750
    7    1    3  25.33497   9.50672  -2.67169
    8    1    3  26.09051  10.02226  -3.07588
    9    1    2  22.20219   6.04195   0.26579
   10    1    3  23.17272   6.26180   0.16711
   11    1    3  24.14325   6.48165   0.06844
   12    1    3  25.11378   6.70150  -0.03024
   13    1    3  26.08431   6.92136  -0.12891
   14    1    3  27.05484   7.14121  -0.22759
   15    1    3  28.02537   7.36106  -0.32627
   16    1    2  21.15909   3.04912   0.30765
   17    1    3  21.78192   2.27136   0.22293
   18    1    3  22.40475   1.49361   0.13822
   19    1    3  23.02758   0.71585   0.05350
   20    1    3  23.65041  -0.06191  -0.03122
   21    1    3  24.27324  -0.83966  -0.11594
   22    1    3  24.89608  -1.61742  -0.20066
   23    1    2  17.93667   3.16371  -0.93630
   24    1    3  17.48536   2.42415  -1.43567
   25    1    3  17.03405   1.68459  -1.93504
   26    1    3  16.58274   0.94503  -2.43442
   27    1    3  16.13143   0.20547  -2.93379
   28    1    3  15.68012  -0.53409  -3.43316
   29    1    3  15.22881  -1.27365  -3.93253
   30    1    2  19.70611   3.61648   2.95115
   31    1    3  19.84461   3.02785   3.74760
   32    1    3  19.98311   2.43922   4.54404
   33    1    3  20.12161   1.85058   5.34049
   34    1    3  20.26012   1.26195   6.13694
   35    1    3  20.39862   0.67331   6.93338
   36    1    3  20.53712   0.08468   7.72983
   37    1    2  16.92283   4.55597   2.20823
   38    1    3  16.13357   4.28050   2.75704
   39    1    3  15.34432   4.00503   3.30585
   40    1    3  14.55506   3.72956   3.85465
   41    1    3  13.76580   3.45409   4.40346
   42    1    3  12.97655   3.17861   4.95227
   43    1    3  12.18729   2.90314   5.50107
   44    1    2  17.21156   7.28146   1.59677
   45    1    3  16.51855   7.91448   1.94175
   46    1    3  15.82554   8.54751   2.28674
   47    1    3  15.13252   9.18053   2.63172
   48    1    3  14.43951   9.81355   2.97670
   49    1    3  13.74650  10.44658   3.32169
   50    1    3  13.05349  11.07960   3.66667
   51    1    2  17.22276   3.62899  -0.72256
   52    1    3  16.53347   3.04453  -1.15069
   53    1    3  15.84419   2.46006  -1.57881
   54    1    3  15.15491   1.87559  -2.00693
   55    1    3  14.46563   1.29113  -2.43506
   56    1    3  13.77635   0.70666  -2.86318
   57    1    3  13.08706   0.12220  -3.29131
   58    1    2  20.24684   7.62390  -1.18782
   59    1    3  20.56559   8.37107  -1.77103
   60    1    3  20.88434   9.11824  -2.35424
   61    1    3  21.20309   9.86542  -2.93745
   62    1    3  21.52184  10.61259  -3.52066
   63    1    3  21.84058  11.35976  -4.10387
   64    1    3  22.15933  12.10693  -4.68708
   65    1    2  21.57834   3.45352   0.34801
   66    1    3  22.34092   2.81056   0.27674
   67    1    3  23.10350   2.16760   0.20548
   68    1    3  23.86608   1.52465   0.13421
   69    1    3  24.62866   0.88169   0.06294
   70    1    3  25.39124   0.23874  -0.00832
   71    1    3  26.15382  -0.40422  -0.07959
   72    1    2  21.58897   3.68553  -0.35370
   73    1    3  22.35509   3.11991  -0.65888
   74    1    3  23.12121   2.55429  -0.96405
   75    1    3  23.88734   1.98867  -1.26922
   76    1    3  24.65346   1.42305  -1.57439
   77    1    3  25.41958   0.85743  -1.87957
   78    1    3  26.18571   0.29181  -2.18474
   79    1    2  20.93947   7.88735   0.64178
   80    1    3  21.48909   8.72234   0.66843
   81    1    3  22.03871   9.55733   0.69509
   82    1    3  22.58833  10.39231   0.72174
   83    1    3  23.13796  11.22730   0.74840
   84    1    3  23.68758  12.06229   0.77505
   85    1    3  24.23720  12.89728   0.80171
   86    1    2  19.25112   8.11113  -0.68414
   87    1    3  19.23796   9.02071  -1.09946
   88    1    3  19.22480   9.93029  -1.51477
   89    1    3  19.21164  10.83988  -1.93009
   90    1    3  19.19848  11.74946  -2.34541
   91    1    3  19.18532  12.65904  -2.76073
   92    1    3  19.17216  13.56862  -3.17604
   93    1    2  19.86458   4.74759  -2.31353
   94    1    3  20.05591   4.53600  -3.27197
   95    1    3  20.24724   4.32440  -4.23042
   96    1    3  20.43856   4.11280  -5.18887
   97    1    3  20.62989   3.90120  -6.14732
   98    1    3  20.82122   3.68961  -7.10576
   99    1    3  21.01254   3.47801  -8.06421
  100    1    2  21.39289   3.48154   1.54527
  101    1    3  22.09365   2.84793   1.87309
  102    1    3  22.79441   2.21431   2.20091
  103    1    3  23.49517   1.58070   2.52873
  104    1    3  24.19593   0.94708   2.85654
  105    1    3  24.89669   0.31347   3.18436
  106    1    3  25.59746  -0.32015   3.51218
  107    1    2  21.92346   3.95548   0.74071
  108    1    3  22.80107   3.47984   0.80034
  109    1    3  23.67869   3.00421   0.85997
  110    1    3  24.55631   2.52857   0.91960
  111    1    3  25.43393   2.05293   0.97923
  112    1    3  26.31155   1.57730   1.03886
  113    1    3  27.18917   1.10166   1.09849
  114    1    2  18.49141   8.24575   0.15877
  115    1    3  18.22501   9.20021   0.02442
  116    1    3  17.95861  10.15466  -0.10992
  117    1    3  17.69222  11.10911  -0.24427
  118    1    3  17.42582  12.06357  -0.37862
  119    1    3  17.15942  13.01802  -0.51297
  120    1    3  16.89303  13.97248  -0.64731
  121    1    2  22.15443   5.94810  -0.12988
  122    1    3  23.10904   6.13668  -0.36045
  123    1    3  24.06365   6.32525  -0.59101
  124    1    3  25.01826   6.51382  -0.82157
  125    1    3  25.97287   6.70239  -1.05214
  126    1    3  26.92748   6.89096  -1.28270
  127    1    3  27.88209   7.07954  -1.51327
  128    1    2  18.83868   2.82326   2.06070
  129    1    3  18.68804   1.97022   2.56032
  130    1    3  18.53740   1.11718   3.05995
  131    1    3  18.38676   0.26414   3.55958
  132    1    3  18.23612  -0.58890   4.05921
  133    1    3  18.08548  -1.44194   4.55884
  134    1    3  17.93484  -2.29498   5.05847
  135    1    2  17.74611   7.93229   0.22630
  136    1    3  17.23128   8.78225   0.11446
  137    1    3  16.71645   9.63222   0.00262
  138    1    3  16.20163  10.48219  -0.10922
  139    1    3  15.68680  11.33215  -0.22106
  140    1    3  15.17197  12.18212  -0.33289
  141    1    3  14.65714  13.03209  -0.44473
  142    1    2  18.87422   4.53787  -2.28659
  143    1    3  18.73543   4.25636  -3.23606
  144    1    3  18.59663   3.97485  -4.18553
  145    1    3  18.45784   3.69335  -5.13500
  146    1    3  18.31905   3.41184  -6.08447
  147    1    3  18.18025   3.13034  -7.03394
  148    1    3  18.04146   2.84883  -7.98340
  149    1    2  16.52088   6.32618   1.22355
  150    1    3  15.59764   6.64077   1.44413
  151    1    3  14.67440   6.95537   1.66471
  152    1    3  13.75116   7.26997   1.88529
  153    1    3  12.82792   7.58457   2.10587
  154    1    3  11.90467   7.89916   2.32645
  155    1    3  10.98143   8.21376   2.54703
  156    1    2  18.40148   7.05369   2.88909
  157    1    3  18.10511   7.61079   3.66485
  158    1    3  17.80873   8.16789   4.44061
  159    1    3  17.51236   8.72499   5.21637
  160    1    3  17.21599   9.28209   5.99213
  161    1    3  16.91962   9.83919   6.76789
  162    1    3  16.62324  10.39629   7.54365
  163    1    2  20.41843   5.23710  -2.21431
  164    1    3  20.79438   5.18867  -3.13969
  165    1    3  21.17032   5.14025  -4.06507
  166    1    3  21.54627   5.09182  -4.99044
  167    1    3  21.92221   5.04339  -5.91582
  168    1    3  22.29816   4.99496  -6.84119
  169    1    3  22.67410   4.94653  -7.76657
  170    1    2  16.64502   3.99381   0.29207
  171    1    3  15.76316   3.53096   0.20215
  172    1    3  14.88130   3.06810   0.11224
  173    1    3  13.99944   2.60524   0.02232
  174    1    3  13.11758   2.14238  -0.06760
  175    1    3  12.23572   1.67952  -0.15751
  176    1    3  11.35386   1.21667  -0.24743
  177    1    2  18.45672   7.29730  -1.59173
  178    1    3  18.17876   7.93561  -2.30958
  179    1    3  17.90081   8.57391  -3.02743
  180    1    3  17.62285   9.21221  -3.74528
  181    1    3  17.34489   9.85052  -4.46312
  182    1    3  17.06693  10.48882  -5.18097
  183    1    3  16.78897  11.12713  -5.89882
  184    1    2  21.91483   5.49831   2.01094
  185    1    3  22.78957   5.53695   2.49399
  186    1    3  23.66432   5.57559   2.97703
  187    1    3  24.53906   5.61423   3.46008
  188    1    3  25.41380   5.65287   3.94312
  189    1    3  26.28855   5.69151   4.42616
  190    1    3  27.16329   5.73015   4.90921
  191    1    2  17.66606   7.78080  -0.21824
  192    1    3  17.12455   8.58027  -0.47826
  193    1    3  16.58303   9.37974  -0.73828
  194    1    3  16.04152  10.17921  -0.99830
  195    1    3  15.50000  10.97868  -1.25832
  196    1    3  14.95849  11.77815  -1.51834
  197    1    3  14.41698  12.57762  -1.77835
  198    1    2  18.21203   4.44407   3.19929
  199    1    3  17.85251   4.13130   4.07844
  200    1    3  17.49299   3.81853   4.95760
  201    1    3  17.13347   3.50576   5.83676
  202    1    3  16.77394   3.19299   6.71592
  203    1    3  16.41442   2.88022   7.59507
  204    1    3  16.05490   2.56745   8.47423
  205    1    2  18.71069   5.12745   3.49417
  206    1    3  18.51739   5.04248   4.47162
  207    1    3  18.32409   4.95750   5.44907
  208    1    3  18.13079   4.87252   6.42653
  209    1    3  17.93748   4.78754   7.40398
  210    1    3  17.74418   4.70256   8.38143
  211    1    3  17.55088   4.61759   9.35888
  212    1    2  21.20939   3.82221  -1.13645
  213    1    3  21.84898   3.30215  -1.70254
  214    1    3  22.48858   2.78210  -2.26863
  215    1    3  23.12817   2.26204  -2.83472
  216    1    3  23.76777   1.74198  -3.40081
  217    1    3  24.40737   1.22192  -3.96690
  218    1    3  25.04696   0.70186  -4.53299
  219    1    2  22.19463   4.65636   0.36312
  220    1    3  23.16265   4.41435   0.29689
  221    1    3  24.13066   4.17234   0.23066
  222    1    3  25.09867   3.93034   0.16443
  223    1    3  26.06668   3.68833   0.09820
  224    1    3  27.03469   3.44632   0.03197
  225    1    3  28.00270   3.20431  -0.03426
  226    1    2  17.76364   7.38430  -1.06936
  227    1    3  17.25465   8.05161  -1.61308
  228    1    3  16.74566   8.71891  -2.15680
  229    1    3  16.23667   9.38622  -2.70053
  230    1    3  15.72768  10.05352  -3.24425
  231    1    3  15.21869  10.72083  -3.78797
  232    1    3  14.70970  11.38813  -4.33170
  233    1    2  18.35213   7.76400   2.12617
  234    1    3  18.03931   8.55787   2.64762
  235    1    3  17.72648   9.35174   3.16907
  236    1    3  17.41366  10.14561   3.69053
  237    1    3  17.10084  10.93948   4.21198
  238    1    3  16.78801  11.73335   4.73343
  239    1    3  16.47519  12.52722   5.25488
  240    1    2  17.53978   7.17082  -1.09231
  241    1    3  16.95617   7.76697  -1.64369
  242    1    3  16.37257   8.36311  -2.19506
  243    1    3  15.78896   8.95926  -2.74644
  244    1    3  15.20536   9.55540  -3.29782
  245    1    3  14.62175  10.15155  -3.84919
  246    1    3  14.03814  10.74769  -4.40057
  247    1    2  21.64565   4.36785  -0.99525
  248    1    3  22.43067   4.02967  -1.51427
  249    1    3  23.21569   3.69150  -2.03330
  250    1    3  24.00070   3.35332  -2.55232
  251    1    3  24.78572   3.01514  -3.07134
  252    1    3  25.57074   2.67696  -3.59036
  253    1    3  26.35575   2.33878  -4.10938
  254    1    2  22.25139   5.50445   0.09401
  255    1    3  23.23832   5.54513  -0.06192
  256    1    3  24.22525   5.58582  -0.21786
  257    1    3  25.21218   5.62650  -0.37379
  258    1    3  26.19910   5.66719  -0.52973
  259    1    3  27.18603   5.70788  -0.68566
  260    1    3  28.17296   5.74856  -0.84159
  261    1    2  22.05859   6.47958   0.92845
  262    1    3  22.98125   6.84531   1.05066
  263    1    3  23.90391   7.21104   1.17288
  264    1    3  24.82657   7.57677   1.29509
  265    1    3  25.74924   7.94250   1.41730
  266    1    3  26.67190   8.30823   1.53952
  267    1    3  27.59456   8.67396   1.66173
  268    1    2  19.40184   6.55932  -2.19544
  269    1    3  19.43892   6.95163  -3.11453
  270    1    3  19.47599   7.34394  -4.03361
  271    1    3  19.51307   7.73625  -4.95270
  272    1    3  19.55015   8.12856  -5.87178
  273    1    3  19.58723   8.52087  -6.79087
  274    1    3  19.62431   8.91318  -7.70995
  275    1    2  18.23480   8.17231   0.24305
  276    1    3  17.88287   9.10229   0.13680
  277    1    3  17.53093  10.03226   0.03054
  278    1    3  17.17900  10.96223  -0.07571
  279    1    3  16.82706  11.89221  -0.18197
  280    1    3  16.47513  12.82218  -0.28822
  281    1    3  16.12320  13.75216  -0.39447
  282    1    2  21.92608   4.68687   1.81502
  283    1    3  22.80457   4.45504   2.23275
  284    1    3  23.68306   4.22320   2.65049
  285    1    3  24.56155   3.99136   3.06822
  286    1    3  25.44005   3.75952   3.48596
  287    1    3  26.31854   3.52768   3.90369
  288    1    3  27.19703   3.29585   4.32143
  289    1    2  16.66104   4.99405  -0.82909
  290    1    3  15.78452   4.86460  -1.29272
  291    1    3  14.90800   4.73516  -1.75635
  292    1    3  14.03148   4.60571  -2.21998
  293    1    3  13.15496   4.47627  -2.68362
  294    1    3  12.27844   4.34682  -3.14725
  295    1    3  11.40191   4.21738  -3.61088
  296    1    2  16.35958   5.79566   0.07366
  297    1    3  15.38257   5.93342  -0.08906
  298    1    3  14.40556   6.07118  -0.25178
  299    1    3  13.42855   6.20893  -0.41450
  300    1    3  12.45154   6.34669  -0.57721
  301    1    3  11.47453   6.48445  -0.73993
  302    1    3  10.49752   6.62221  -0.90265
  303    1    2  20.22395   2.60592   1.20996
  304    1    3  20.53507   1.68044   1.42601
  305    1    3  20.84619   0.75495   1.64206
  306    1    3  21.15731  -0.17054   1.85811
  307    1    3  21.46843  -1.09603   2.07416
  308    1    3  21.77955  -2.02152   2.29021
  309    1    3  22.09066  -2.94700   2.50626
  310    1    2  20.54095   4.28149   3.05674
  311    1    3  20.95773   3.91453   3.88838
  312    1    3  21.37452   3.54756   4.72002
  313    1    3  21.79130   3.18060   5.55167
  314    1    3  22.20808   2.81364   6.38331
  315    1    3  22.62487   2.44667   7.21495
  316    1    3  23.04165   2.07971   8.04659
  317    1    2  20.16364   3.14574   2.36048
  318    1    3  20.45466   2.40019   2.96003
  319    1    3  20.74567   1.65464   3.55959
  320    1    3  21.03668   0.90909   4.15914
  321    1    3  21.32770   0.16354   4.75870
  322    1    3  21.61871  -0.58201   5.35825
  323    1    3  21.90973  -1.32756   5.95781
  324    1    2  17.65461   4.05045   2.69476
  325    1    3  17.10928   3.60646   3.40574
  326    1    3  16.56395   3.16248   4.11673
  327    1    3  16.01862   2.71850   4.82771
  328    1    3  15.47329   2.27452   5.53869
  329    1    3  14.92796   1.83054   6.24968
  330    1    3  14.38263   1.38656   6.96066
  331    1    2  18.41625   2.63876   1.40324
  332    1    3  18.12480   1.72421   1.68371
  333    1    3  17.83334   0.80967   1.96419
  334    1    3  17.54189  -0.10487   2.24467
  335    1    3  17.25044  -1.01942   2.52514
  336    1    3  16.95899  -1.93396   2.80562
  337    1    3  16.66754  -2.84850   3.08609
  338    1    2  20.41760   6.83713   2.93112
  339    1    3  20.79326   7.32204   3.72089
  340    1    3  21.16893   7.80695   4.51066
  341    1    3  21.54459   8.29187   5.30043
  342    1    3  21.92026   8.77678   6.09019
  343    1    3  22.29592   9.26169   6.87996
  344    1    3  22.67159   9.74661   7.66973
  345    1    2  17.92562   3.61645   2.56638
  346    1    3  17.47062   3.02780   3.23457
  347    1    3  17.01563   2.43916   3.90275
  348    1    3  16.56063   1.85051   4.57094
  349    1    3  16.10564   1.26187   5.23913
  350    1    3  15.65064   0.67322   5.90732
  351    1    3  15.19565   0.08457   6.57551
  352    1    2  18.54428   2.62197  -0.34544
  353    1    3  18.29551   1.70183  -0.64786
  354    1    3  18.04674   0.78169  -0.95028
  355    1    3  17.79797  -0.13844  -1.25270
  356    1    3  17.54919  -1.05858  -1.55512
  357    1    3  17.30042  -1.97872  -1.85754
  358    1    3  17.05165  -2.89886  -2.15996
  359    1    2  21.13917   3.04085   0.87800
  360    1    3  21.75536   2.26033   0.98339
  361    1    3  22.37155   1.47982   1.08879
  362    1    3  22.98774   0.69930   1.19418
  363    1    3  23.60393  -0.08121   1.29957
  364    1    3  24.22012  -0.86172   1.40497
  365    1    3  24.83631  -1.64224   1.51036
  366    1    2  18.78268   8.22806   1.36441
  367    1    3  18.61337   9.17662   1.63194
  368    1    3  18.44406  10.12518   1.89947
  369    1    3  18.27475  11.07373   2.16700
  370    1    3  18.10544  12.02229   2.43453
  371    1    3  17.93613  12.97085   2.70207
  372    1    3  17.76682  13.91941   2.96960
  373    1    2  20.90323   4.49250   2.92983
  374    1    3  21.44077   4.19587   3.71917
  375    1    3  21.97832   3.89923   4.50851
  376    1    3  22.51586   3.60260   5.29785
  377    1    3  23.05340   3.30597   6.08719
  378    1    3  23.59095   3.00934   6.87653
  379    1    3  24.12849   2.71271   7.66587
  380    1    2  17.37686   5.19009  -1.74050
  381    1    3  16.73895   5.12599  -2.50793
  382    1    3  16.10104   5.06189  -3.27537
  383    1    3  15.46313   4.99779  -4.04281
  384    1    3  14.82522   4.93369  -4.81024
  385    1    3  14.18730   4.86960  -5.57768
  386    1    3  13.54939   4.80550  -6.34512
  387    1    2  21.53448   5.05900  -1.40299
  388    1    3  22.28244   4.95120  -2.05792
  389    1    3  23.03040   4.84340  -2.71285
  390    1    3  23.77835   4.73561  -3.36779
  391    1    3  24.52631   4.62781  -4.02272
  392    1    3  25.27427   4.52001  -4.67765
  393    1    3  26.02223   4.41222  -5.33258
  394    1    2  16.88403   4.05320   1.76251
  395    1    3  16.08184   3.61013   2.16274
  396    1    3  15.27965   3.16707   2.56297
  397    1    3  14.47746   2.72401   2.96320
  398    1    3  13.67527   2.28095   3.36344
  399    1    3  12.87308   1.83788   3.76367
  400    1    3  12.07089   1.39482   4.16390
  401    1    2  18.37051   7.70101  -1.10475
  402    1    3  18.06382   8.47388  -1.66027
  403    1    3  17.75712   9.24676  -2.21579
  404    1    3  17.45043  10.01963  -2.77131
  405    1    3  17.14373  10.79251  -3.32683
  406    1    3  16.83704  11.56538  -3.88235
  407    1    3  16.53034  12.33825  -4.43787
  408    1    2  21.57815   5.03010   2.47048
  409    1    3  22.34067   4.91267   3.10670
  410    1    3  23.10319   4.79524   3.74292
  411    1    3  23.86570   4.67782   4.37914
  412    1    3  24.62822   4.56039   5.01536
  413    1    3  25.39074   4.44296   5.65159
  414    1    3  26.15326   4.32553   6.28781
  415    1    2  20.53967   4.47919   3.13554
  416    1    3  20.95602   4.17812   3.99344
  417    1    3  21.37238   3.87705   4.85135
  418    1    3  21.78874   3.57598   5.70926
  419    1    3  22.20509   3.27492   6.56717
  420    1    3  22.62145   2.97385   7.42508
  421    1    3  23.03780   2.67278   8.28298
  422    1    2  17.58986   7.05974   2.37674
  423    1    3  17.02294   7.61886   2.98171
  424    1    3  16.45603   8.17798   3.58669
  425    1    3  15.88912   8.73710   4.19166
  426    1    3  15.32220   9.29622   4.79664
  427    1    3  14.75529   9.85534   5.40161
  428    1    3  14.18837  10.41446   6.00659
  429    1    2  21.75522   6.96397  -0.08954
  430    1    3  22.57675   7.49116  -0.30666
  431    1    3  23.39829   8.01836  -0.52378
  432    1    3  24.21983   8.54555  -0.74090
  433    1    3  25.04137   9.07275  -0.95802
  434    1    3  25.86291   9.59994  -1.17514
  435    1    3  26.68445  10.12714  -1.39226
  436    1    2  21.60907   6.54954   2.06597
  437    1    3  22.38189   6.93859   2.56735
  438    1    3  23.15471   7.32763   3.06874
  439    1    3  23.92753   7.71668   3.57012
  440    1    3  24.70036   8.10573   4.07151
  441    1    3  25.47318   8.49478   4.57289
  442    1    3  26.24600   8.88383   5.07427
  443    1    2  17.66608   4.28174   2.83107
  444    1    3  17.12458   3.91485   3.58748
  445    1    3  16.58307   3.54797   4.34390
  446    1    3  16.04156   3.18109   5.10032
  447    1    3  15.50006   2.81421   5.85674
  448    1    3  14.95855   2.44732   6.61315
  449    1    3  14.41704   2.08044   7.36957
  450    1    2  16.75599   6.98321   0.67632
  451    1    3  15.91112   7.51682   0.71449
  452    1    3  15.06625   8.05043   0.75266
  453    1    3  14.22138   8.58404   0.79083
  454    1    3  13.37651   9.11765   0.82900
  455    1    3  12.53164   9.65126   0.86717
  456    1    3  11.68677  10.18487   0.90534
  457    1    2  19.24510   2.86798  -1.07395
  458    1    3  19.22994   2.02985  -1.61920
  459    1    3  19.21477   1.19172  -2.16445
  460    1    3  19.19961   0.35358  -2.70971
  461    1    3  19.18444  -0.48455  -3.25496
  462    1    3  19.16928  -1.32269  -3.80021
  463    1    3  19.15411  -2.16082  -4.34547
  464    1    2  17.79792   7.79105   1.54683
  465    1    3  17.30035   8.59393   1.87517
  466    1    3  16.80279   9.39682   2.20350
  467    1    3  16.30523  10.19971   2.53184
  468    1    3  15.80767  11.00259   2.86018
  469    1    3  15.31011  11.80548   3.18852
  470    1    3  14.81254  12.60836   3.51686
  471    1    2  21.47230   6.22083   2.44257
  472    1    3  22.19953   6.50031   3.06948
  473    1    3  22.92676   6.77978   3.69640
  474    1    3  23.65399   7.05926   4.32332
  475    1    3  24.38122   7.33874   4.95023
  476    1    3  25.10845   7.61822   5.57715
  477    1    3  25.83569   7.89770   6.20407
  478    1    2  20.68319   7.96234  -0.07422
  479    1    3  21.14739   8.82232  -0.28623
  480    1    3  21.61159   9.68231  -0.49824
  481    1    3  22.07579  10.54229  -0.71025
  482    1    3  22.53998  11.40227  -0.92226
  483    1    3  23.00418  12.26226  -1.13427
  484    1    3  23.46838  13.12224  -1.34628
  485    1    2  21.66393   5.66437   2.37504
  486    1    3  22.45504   5.75836   2.97945
  487    1    3  23.24615   5.85235   3.58385
  488    1    3  24.03726   5.94634   4.18826
  489    1    3  24.82838   6.04034   4.79267
  490    1    3  25.61949   6.13433   5.39708
  491    1    3  26.41060   6.22832   6.00149
  492    1    2  17.46793   4.62840  -1.69858
  493    1    3  16.86037   4.37706  -2.45204
  494    1    3  16.25282   4.12573  -3.20551
  495    1    3  15.64526   3.87440  -3.95897
  496    1    3  15.03770   3.62307  -4.71243
  497    1    3  14.43014   3.37174  -5.46590
  498    1    3  13.82259   3.12041  -6.21936
  499    1    2  18.46987   4.98280   3.41956
  500    1    3  18.19629   4.84960   4.37214
  501    1    3  17.92271   4.71641   5.32473
  502    1    3  17.64913   4.58321   6.27731
  503    1    3  17.37556   4.45001   7.22989
  504    1    3  17.10198   4.31682   8.18247
  505    1    3  16.82840   4.18362   9.13506
  506    1    2  21.42234   6.71735   2.19692
  507    1    3  22.13292   7.16234   2.74195
  508    1    3  22.84350   7.60732   3.28699
  509    1    3  23.55408   8.05231   3.83202
  510    1    3  24.26466   8.49730   4.37706
  511    1    3  24.97524   8.94228   4.92209
  512    1    3  25.68582   9.38727   5.46712
  513    1    2  21.02749   6.28730  -1.71070
  514    1    3  21.60646   6.58894  -2.46821
  515    1    3  22.18542   6.89058  -3.22571
  516    1    3  22.76439   7.19222  -3.98322
  517    1    3  23.34335   7.49386  -4.74073
  518    1    3  23.92232   7.79549  -5.49823
  519    1    3  24.50128   8.09713  -6.25574
  520    1    2  18.37064   2.57556   0.03704
  521    1    3  18.06399   1.63995  -0.13789
  522    1    3  17.75734   0.70434  -0.31281
  523    1    3  17.45068  -0.23127  -0.48774
  524    1    3  17.14403  -1.16688  -0.66266
  525    1    3  16.83738  -2.10249  -0.83758
  526    1    3  16.53073  -3.03810  -1.01251
  527    1    2  20.60153   8.03842   0.08543
  528    1    3  21.03850   8.92377  -0.07337
  529    1    3  21.47548   9.80911  -0.23216
  530    1    3  21.91245  10.69446  -0.39096
  531    1    3  22.34943  11.57981  -0.54975
  532    1    3  22.78640  12.46515  -0.70855
  533    1    3  23.22338  13.35050  -0.86735
  534    1    2  17.71701   4.85040   3.05997
  535    1    3  17.19248   4.67308   3.89269
  536    1    3  16.66795   4.49575   4.72542
  537    1    3  16.14342   4.31842   5.55814
  538    1    3  15.61889   4.14109   6.39086
  539    1    3  15.09436   3.96376   7.22358
  540    1    3  14.56983   3.78643   8.05630
  541    1    2  17.92545   2.73244   0.89971
  542    1    3  17.47041   1.84913   1.01234
  543    1    3  17.01536   0.96581   1.12497
  544    1    3  16.56031   0.08250   1.23760
  545    1    3  16.10526  -0.80081   1.35023
  546    1    3  15.65021  -1.68413   1.46286
  547    1    3  15.19516  -2.56744   1.57550
  548    1    2  21.55845   7.23032  -0.10303
  549    1    3  22.31440   7.84629  -0.32464
  550    1    3  23.07035   8.46227  -0.54625
  551    1    3  23.82630   9.07824  -0.76787
  552    1    3  24.58225   9.69422  -0.98948
  553    1    3  25.33820  10.31020  -1.21109
  554    1    3  26.09415  10.92617  -1.43271
  555    1    2  16.53674   5.93161  -0.49393
  556    1    3  15.61879   6.11469  -0.84585
  557    1    3  14.70083   6.29776  -1.19776
  558    1    3  13.78288   6.48084  -1.54968
  559    1    3  12.86492   6.66392  -1.90159
  560    1    3  11.94697   6.84699  -2.25351
  561    1    3  11.02902   7.03007  -2.60542
  562    1    2  17.79244   2.78362   0.60553
  563    1    3  17.29305   1.91736   0.62011
  564    1    3  16.79366   1.05111   0.63468
  565    1    3  16.29427   0.18485   0.64925
  566    1    3  15.79488  -0.68140   0.66383
  567    1    3  15.29550  -1.54766   0.67840
  568    1    3  14.79611  -2.41392   0.69297
  569    1    2  20.52078   4.64106   3.19565
  570    1    3  20.93084   4.39396   4.07360
  571    1    3  21.34090   4.14685   4.95154
  572    1    3  21.75096   3.89974   5.82949
  573    1    3  22.16102   3.65263   6.70743
  574    1    3  22.57108   3.40553   7.58538
  575    1    3  22.98113   3.15842   8.46333
  576    1    2  18.38449   4.11805  -2.00342
  577    1    3  18.08246   3.69661  -2.85850
  578    1    3  17.78042   3.27516  -3.71358
  579    1    3  17.47839   2.85372  -4.56866
  580    1    3  17.17635   2.43227  -5.42373
  581    1    3  16.87431   2.01083  -6.27881
  582    1    3  16.57228   1.58938  -7.13389
  583    1    2  19.23823   8.35106   0.13259
  584    1    3  19.22078   9.34062  -0.01049
  585    1    3  19.20332  10.33018  -0.15356
  586    1    3  19.18587  11.31973  -0.29664
  587    1    3  19.16841  12.30929  -0.43972
  588    1    3  19.15096  13.29885  -0.58279
  589    1    3  19.13350  14.28841  -0.72587
  590    1    2  21.96041   5.96562  -0.67591
  591    1    3  22.85034   6.16003  -1.08849
  592    1    3  23.74028   6.35444  -1.50107
  593    1    3  24.63021   6.54885  -1.91364
  594    1    3  25.52015   6.74326  -2.32622
  595    1    3  26.41009   6.93767  -2.73879
  596    1    3  27.30002   7.13209  -3.15137
  597    1    2  18.01762   7.29819  -1.36412
  598    1    3  17.59329   7.93680  -2.00609
  599    1    3  17.16897   8.57540  -2.64807
  600    1    3  16.74464   9.21400  -3.29005
  601    1    3  16.32031   9.85260  -3.93203
  602    1    3  15.89599  10.49120  -4.57400
  603    1    3  15.47166  11.12981  -5.21598
  604    1    2  20.86913   6.70224   2.74499
  605    1    3  21.39530   7.14219   3.47271
  606    1    3  21.92148   7.58214   4.20044
  607    1    3  22.44765   8.02209   4.92816
  608    1    3  22.97383   8.46204   5.65589
  609    1    3  23.50000   8.90199   6.38361
  610    1    3  24.02618   9.34194   7.11134
  611    1    2  20.15206   5.51988   3.43218
  612    1    3  20.43921   5.56571   4.38896
  613    1    3  20.72636   5.61154   5.34575
  614    1    3  21.01352   5.65737   6.30254
  615    1    3  21.30067   5.70320   7.25933
  616    1    3  21.58782   5.74903   8.21612
  617    1    3  21.87497   5.79486   9.17290
  618    1    2  21.82993   6.27535   1.88637
  619    1    3  22.67637   6.57301   2.32788
  620    1    3  23.52281   6.87066   2.76940
  621    1    3  24.36925   7.16832   3.21092
  622    1    3  25.21569   7.46597   3.65244
  623    1    3  26.06213   7.76363   4.09395
  624    1    3  26.90858   8.06128   4.53547
  625    1    2  18.16449   4.65796   3.24641
  626    1    3  17.78911   4.41648   4.14128
  627    1    3  17.41374   4.17500   5.03614
  628    1    3  17.03837   3.93353   5.93101
  629    1    3  16.66300   3.69205   6.82587
  630    1    3  16.28763   3.45057   7.72074
  631    1    3  15.91225   3.20910   8.61561
  632    1    2  16.65219   4.89442  -0.78008
  633    1    3  15.77272   4.73176  -1.22738
  634    1    3  14.89325   4.56910  -1.67468
  635    1    3  14.01378   4.40644  -2.12198
  636    1    3  13.13431   4.24379  -2.56928
  637    1    3  12.25484   4.08113  -3.01658
  638    1    3  11.37538   3.91847  -3.46388
  639    1    2  18.92809   2.56972  -0.41670
  640    1    3  18.80725   1.63216  -0.74287
  641    1    3  18.68641   0.69461  -1.06904
  642    1    3  18.56557  -0.24295  -1.39521
  643    1    3  18.44474  -1.18050  -1.72138
  644    1    3  18.32390  -2.11806  -2.04755
  645    1    3  18.20306  -3.05562  -2.37372
  646    1    2  19.37968   7.78747  -1.22917
  647    1    3  19.40937   8.58917  -1.82617
  648    1    3  19.43907   9.39086  -2.42317