LAMMPS description

338     atoms
288     bonds

3       atom types
2       bond types

-20.000000 20.000000 xlo xhi
-20.000000 20.000000 ylo yhi
-20.000000 20.000000 zlo zhi

Atoms

    1    1    1   6.67250   4.64820  15.40375
    2    2    2   8.30781   2.13656  15.27180
    3    2    3   8.85291   1.29934  15.22782
    4    2    3   9.39802   0.46213  15.18384
    5    2    3   9.94312  -0.37509  15.13985
    6    2    3  10.48822  -1.21230  15.09587
    7    2    3  11.03333  -2.04952  15.05189
    8    2    3  11.57843  -2.88673  15.00790
    9    3    2   4.67578   2.45432  15.85099
   10    3    3   4.01021   1.72303  16.00006
   11    3    3   3.34463   0.99174  16.14914
   12    3    3   2.67906   0.26045  16.29822
   13    3    3   2.01349  -0.47084  16.44730
   14    3    3   1.34791  -1.20214  16.59638
   15    3    3   0.68234  -1.93343  16.74545
   16    4    2   8.60765   2.47074  14.68688
   17    4    3   9.25269   1.74493  14.44793
   18    4    3   9.89774   1.01911  14.20897
   19    4    3  10.54279   0.29329  13.97002
   20    4    3  11.18784  -0.43253  13.73106
   21    4    3  11.83289  -1.15835  13.49210
   22    4    3  12.47794  -1.88417  13.25315
   23    5    2   9.62120   4.38320  15.88846
   24    5    3  10.60410   4.29486  16.05003
   25    5    3  11.58700   4.20653  16.21160
   26    5    3  12.56990   4.11820  16.37317
   27    5    3  13.55280   4.02986  16.53474
   28    5    3  14.53570   3.94153  16.69631
   29    5    3  15.51860   3.85320  16.85788
   30    6    2   8.19550   7.21126  15.07030
   31    6    3   8.70317   8.06561  14.95914
   32    6    3   9.21084   8.91996  14.84799
   33    6    3   9.71851   9.77432  14.73684
   34    6    3  10.22617  10.62867  14.62569
   35    6    3  10.73384  11.48302  14.51454
   36    6    3  11.24151  12.33737  14.40338
   37    7    2   4.40896   2.76382  15.97427
   38    7    3   3.65444   2.13570  16.16444
   39    7    3   2.89993   1.50757  16.35461
   40    7    3   2.14541   0.87944  16.54478
   41    7    3   1.39090   0.25132  16.73496
   42    7    3   0.63638  -0.37681  16.92513
   43    7    3  -0.11813  -1.00493  17.11530
   44    8    2   7.83829   1.96906  16.08429
   45    8    3   8.22689   1.07601  16.31113
   46    8    3   8.61548   0.18296  16.53798
   47    8    3   9.00408  -0.71009  16.76482
   48    8    3   9.39268  -1.60314  16.99166
   49    8    3   9.78127  -2.49618  17.21851
   50    8    3  10.16987  -3.38923  17.44535
   51    9    2   4.42974   6.60553  15.77640
   52    9    3   3.68215   7.25798  15.90062
   53    9    3   2.93457   7.91042  16.02484
   54    9    3   2.18698   8.56287  16.14906
   55    9    3   1.43939   9.21531  16.27327
   56    9    3   0.69180   9.86776  16.39749
   57    9    3  -0.05578  10.52020  16.52171
   58   10    2   6.30764   6.27939  12.91255
   59   10    3   6.18602   6.82312  12.08215
   60   10    3   6.06439   7.36685  11.25175
   61   10    3   5.94277   7.91059  10.42135
   62   10    3   5.82115   8.45432   9.59095
   63   10    3   5.69953   8.99805   8.76055
   64   10    3   5.57791   9.54178   7.93015
   65   11    2   6.98824   7.37214  16.62050
   66   11    3   7.09349   8.28012  17.02608
   67   11    3   7.19874   9.18810  17.43166
   68   11    3   7.30399  10.09608  17.83724
   69   11    3   7.40923  11.00406  18.24282
   70   11    3   7.51448  11.91204  18.64840
   71   11    3   7.61973  12.82002  19.05398
   72   12    2   3.93861   5.38187  16.39752
   73   12    3   3.02731   5.62643  16.72877
   74   12    3   2.11602   5.87099  17.06003
   75   12    3   1.20472   6.11554  17.39128
   76   12    3   0.29342   6.36010  17.72254
   77   12    3  -0.61787   6.60466  18.05379
   78   12    3  -1.52917   6.84922  18.38505
   79   13    2   6.77295   5.14361  12.44665
   80   13    3   6.80643   5.30875  11.46094
   81   13    3   6.83991   5.47388  10.47524
   82   13    3   6.87340   5.63902   9.48954
   83   13    3   6.90688   5.80416   8.50384
   84   13    3   6.94036   5.96929   7.51814
   85   13    3   6.97385   6.13443   6.53243
   86   14    2   9.29672   6.10070  15.46460
   87   14    3  10.17146   6.58486  15.48488
   88   14    3  11.04621   7.06903  15.50517
   89   14    3  11.92095   7.55320  15.52545
   90   14    3  12.79569   8.03736  15.54573
   91   14    3  13.67043   8.52153  15.56602
   92   14    3  14.54517   9.00569  15.58630
   93   15    2   9.29215   6.07019  15.74342
   94   15    3  10.16537   6.54418  15.85664
   95   15    3  11.03859   7.01818  15.96986
   96   15    3  11.91181   7.49217  16.08308
   97   15    3  12.78502   7.96617  16.19630
   98   15    3  13.65824   8.44016  16.30952
   99   15    3  14.53146   8.91416  16.42274
  100   16    2   8.34817   2.35030  14.44889
  101   16    3   8.90673   1.58433  14.13060
  102   16    3   9.46529   0.81836  13.81231
  103   16    3  10.02385   0.05240  13.49402
  104   16    3  10.58240  -0.71357  13.17573
  105   16    3  11.14096  -1.47954  12.85744
  106   16    3  11.69952  -2.24551  12.53916
  107   17    2   7.43474   5.55235  18.16084
  108   17    3   7.68882   5.85373  19.07986
  109   17    3   7.94290   6.15511  19.99889
  110   17    3   8.19698   6.45650  20.91792
  111   17    3   8.45106   6.75788  21.83695
  112   17    3   8.70514   7.05926  22.75597
  113   17    3   8.95922   7.36064  23.67500
  114   18    2   6.51150   7.44235  14.32357
  115   18    3   6.45783   8.37373  13.96350
  116   18    3   6.40417   9.30512  13.60344
  117   18    3   6.35050  10.23650  13.24338
  118   18    3   6.29683  11.16788  12.88332
  119   18    3   6.24316  12.09927  12.52326
  120   18    3   6.18950  13.03065  12.16320
  121   19    2   7.69994   7.46225  15.24412
  122   19    3   8.04242   8.40027  15.19090
  123   19    3   8.38489   9.33829  15.13769
  124   19    3   8.72737  10.27630  15.08448
  125   19    3   9.06985  11.21432  15.03127
  126   19    3   9.41233  12.15234  14.97805
  127   19    3   9.75481  13.09036  14.92484
  128   20    2   3.89732   5.77863  15.26055
  129   20    3   2.97226   6.15544  15.21282
  130   20    3   2.04720   6.53225  15.16508
  131   20    3   1.12214   6.90906  15.11735
  132   20    3   0.19708   7.28587  15.06961
  133   20    3  -0.72798   7.66268  15.02188
  134   20    3  -1.65304   8.03949  14.97414
  135   21    2   5.87450   7.51067  15.81540
  136   21    3   5.60850   8.46483  15.95261
  137   21    3   5.34250   9.41899  16.08983
  138   21    3   5.07650  10.37314  16.22704
  139   21    3   4.81050  11.32730  16.36426
  140   21    3   4.54450  12.28146  16.50147
  141   21    3   4.27850  13.23562  16.63869
  142   22    2   8.34662   5.72809  13.16072
  143   22    3   8.90465   6.08805  12.41305
  144   22    3   9.46269   6.44801  11.66537
  145   22    3  10.02073   6.80797  10.91769
  146   22    3  10.57877   7.16794  10.17002
  147   22    3  11.13681   7.52790   9.42234
  148   22    3  11.69484   7.88786   8.67466
  149   23    2   6.15934   3.32027  12.76306
  150   23    3   5.98829   2.87763  11.88283
  151   23    3   5.81724   2.43498  11.00259
  152   23    3   5.64619   1.99234  10.12236
  153   23    3   5.47514   1.54970   9.24213
  154   23    3   5.30409   1.10705   8.36190
  155   23    3   5.13303   0.66441   7.48167
  156   24    2   8.97451   5.28675  17.21841
  157   24    3   9.74185   5.49960  17.82330
  158   24    3  10.50919   5.71246  18.42818
  159   24    3  11.27653   5.92531  19.03307
  160   24    3  12.04387   6.13816  19.63795
  161   24    3  12.81120   6.35101  20.24284
  162   24    3  13.57854   6.56386  20.84773
  163   25    2   8.15691   3.76697  12.95019
  164   25    3   8.65172   3.47322  12.13234
  165   25    3   9.14652   3.17948  11.31449
  166   25    3   9.64132   2.88573  10.49664
  167   25    3  10.13613   2.59199   9.67878
  168   25    3  10.63093   2.29824   8.86093
  169   25    3  11.12573   2.00450   8.04308
  170   26    1  17.05868  16.22706  16.29648
  171   27    2  16.21579  14.64249  18.70036
  172   27    3  15.93482  14.11430  19.50166
  173   27    3  15.65385  13.58611  20.30295
  174   27    3  15.37289  13.05792  21.10424
  175   27    3  15.09192  12.52973  21.90554
  176   27    3  14.81096  12.00154  22.70683
  177   27    3  14.52999  11.47334  23.50813
  178   28    2  16.91172  13.90211  14.40624
  179   28    3  16.86274  13.12713  13.77616
  180   28    3  16.81375  12.35214  13.14608
  181   28    3  16.76477  11.57716  12.51600
  182   28    3  16.71578  10.80218  11.88592
  183   28    3  16.66679  10.02719  11.25584
  184   28    3  16.61781   9.25221  10.62576
  185   29    2  15.73180  15.56616  18.90466
  186   29    3  15.28951  15.34586  19.77405
  187   29    3  14.84722  15.12556  20.64344
  188   29    3  14.40492  14.90526  21.51283
  189   29    3  13.96263  14.68496  22.38223
  190   29    3  13.52033  14.46466  23.25162
  191   29    3  13.07804  14.24436  24.12101
  192   30    2  15.26244  13.83049  16.12337
  193   30    3  14.66369  13.03164  16.06566
  194   30    3  14.06494  12.23278  16.00796
  195   30    3  13.46619  11.43393  15.95025
  196   30    3  12.86745  10.63507  15.89255
  197   30    3  12.26870   9.83621  15.83485
  198   30    3  11.66995   9.03736  15.77714
  199   31    2  16.10051  18.73429  17.63651
  200   31    3  15.78112  19.57004  18.08319
  201   31    3  15.46172  20.40578  18.52986
  202   31    3  15.14233  21.24153  18.97654
  203   31    3  14.82294  22.07727  19.42322
  204   31    3  14.50355  22.91302  19.86989
  205   31    3  14.18416  23.74876  20.31657
  206   32    2  18.30268  13.56141  15.70759
  207   32    3  18.71735  12.67286  15.51130
  208   32    3  19.13202  11.78431  15.31500
  209   32    3  19.54668  10.89577  15.11871
  210   32    3  19.96135  10.00722  14.92241
  211   32    3  20.37602   9.11867  14.72612
  212   32    3  20.79068   8.23012  14.52983
  213   33    2  14.44653  16.14539  14.82339
  214   33    3  13.57581  16.11817  14.33236
  215   33    3  12.70510  16.09095  13.84133
  216   33    3  11.83438  16.06372  13.35030
  217   33    3  10.96366  16.03650  12.85927
  218   33    3  10.09294  16.00928  12.36824
  219   33    3   9.22222  15.98205  11.87721
  220   34    2  17.38400  16.27347  19.27843
  221   34    3  17.49244  16.28894  20.27241
  222   34    3  17.60088  16.30441  21.26639
  223   34    3  17.70932  16.31987  22.26037
  224   34    3  17.81776  16.33534  23.25436
  225   34    3  17.92620  16.35081  24.24834
  226   34    3  18.03464  16.36628  25.24232
  227   35    2  17.97293  16.72194  13.48236
  228   35    3  18.27768  16.88690  12.54432
  229   35    3  18.58243  17.05186  11.60629
  230   35    3  18.88718  17.21682  10.66825
  231   35    3  19.19193  17.38179   9.73021
  232   35    3  19.49668  17.54675   8.79217
  233   35    3  19.80143  17.71171   7.85413
  234   36    2  16.52268  14.05540  14.29734
  235   36    3  16.34401  13.33151  13.63096
  236   36    3  16.16534  12.60762  12.96458
  237   36    3  15.98667  11.88373  12.29820
  238   36    3  15.80800  11.15984  11.63182
  239   36    3  15.62933  10.43595  10.96544
  240   36    3  15.45066   9.71206  10.29906
  241   37    2  17.67340  15.80837  13.39014
  242   37    3  17.87831  15.66881  12.42136
  243   37    3  18.08322  15.52924  11.45258
  244   37    3  18.28812  15.38968  10.48380
  245   37    3  18.49303  15.25011   9.51502
  246   37    3  18.69794  15.11055   8.54624
  247   37    3  18.90284  14.97099   7.57745
  248   38    2  14.30346  16.90194  15.32013
  249   38    3  13.38505  17.12690  14.99468
  250   38    3  12.46664  17.35186  14.66923
  251   38    3  11.54823  17.57682  14.34378
  252   38    3  10.62982  17.80178  14.01832
  253   38    3   9.71141  18.02674  13.69287
  254   38    3   8.79300  18.25170  13.36742
  255   39    2  18.95106  17.98028  17.82787
  256   39    3  19.58185  18.56468  18.33833
  257   39    3  20.21264  19.14909  18.84880
  258   39    3  20.84343  19.73349  19.35926
  259   39    3  21.47422  20.31790  19.86973
  260   39    3  22.10501  20.90230  20.38019
  261   39    3  22.73580  21.48671  20.89065
  262   40    2  17.86306  16.67277  13.44090
  263   40    3  18.13119  16.82134  12.48904
  264   40    3  18.39932  16.96991  11.53718
  265   40    3  18.66744  17.11848  10.58532
  266   40    3  18.93557  17.26705   9.63347
  267   40    3  19.20370  17.41562   8.68161
  268   40    3  19.47182  17.56419   7.72975
  269   41    2  17.16040  14.22042  14.06869
  270   41    3  17.19430  13.55153  13.32610
  271   41    3  17.22820  12.88265  12.58350
  272   41    3  17.26211  12.21377  11.84091
  273   41    3  17.29601  11.54489  11.09831
  274   41    3  17.32992  10.87601  10.35572
  275   41    3  17.36382  10.20712   9.61312
  276   42    2  16.58864  13.26779  16.44408
  277   42    3  16.43196  12.28137  16.49328
  278   42    3  16.27528  11.29495  16.54247
  279   42    3  16.11859  10.30852  16.59167
  280   42    3  15.96191   9.32210  16.64087
  281   42    3  15.80523   8.33568  16.69007
  282   42    3  15.64855   7.34925  16.73927
  283   43    2  19.58640  15.97906  14.69987
  284   43    3  20.42897  15.89639  14.16767
  285   43    3  21.27154  15.81372  13.63547
  286   43    3  22.11412  15.73105  13.10327
  287   43    3  22.95669  15.64838  12.57107
  288   43    3  23.79926  15.56571  12.03887
  289   43    3  24.64183  15.48304  11.50666
  290   44    2  17.25292  13.82077  14.51546
  291   44    3  17.31767  13.01867  13.92179
  292   44    3  17.38242  12.21657  13.32812
  293   44    3  17.44716  11.41447  12.73444
  294   44    3  17.51191  10.61238  12.14077
  295   44    3  17.57666   9.81028  11.54710
  296   44    3  17.64141   9.00818  10.95343
  297   45    2  17.70842  13.35493  15.72314
  298   45    3  17.92500  12.39756  15.53202
  299   45    3  18.14158  11.44018  15.34091
  300   45    3  18.35816  10.48281  15.14980
  301   45    3  18.57474   9.52543  14.95868
  302   45    3  18.79132   8.56805  14.76757
  303   45    3  19.00790   7.61068  14.57646
  304   46    2  18.02581  14.19120  14.31659
  305   46    3  18.34818  13.51258  13.65663
  306   46    3  18.67055  12.83396  12.99667
  307   46    3  18.99293  12.15534  12.33670
  308   46    3  19.31530  11.47672  11.67674
  309   46    3  19.63767  10.79810  11.01678
  310   46    3  19.96005  10.11949  10.35682
  311   47    2  14.85714  14.26587  15.74248
  312   47    3  14.12329  13.61214  15.55781
  313   47    3  13.38944  12.95841  15.37314
  314   47    3  12.65559  12.30468  15.18847
  315   47    3  11.92174  11.65095  15.00381
  316   47    3  11.18789  10.99722  14.81914
  317   47    3  10.45404  10.34348  14.63447
  318   48    2  14.47334  15.79146  14.83832
  319   48    3  13.61155  15.64625  14.35227
  320   48    3  12.74977  15.50105  13.86621
  321   48    3  11.88799  15.35585  13.38016
  322   48    3  11.02621  15.21065  12.89411
  323   48    3  10.16442  15.06545  12.40805
  324   48    3   9.30264  14.92025  11.92200
  325   49    2  16.25838  13.69839  14.89458
  326   49    3  15.99161  12.85550  14.42728
  327   49    3  15.72484  12.01261  13.95998
  328   49    3  15.45807  11.16972  13.49268
  329   49    3  15.19130  10.32682  13.02538
  330   49    3  14.92453   9.48393  12.55808
  331   49    3  14.65776   8.64104  12.09078
  332   50    2  14.58953  14.99579  17.47430
  333   50    3  13.76648  14.58537  17.86691
  334   50    3  12.94343  14.17494  18.25952
  335   50    3  12.12038  13.76452  18.65212
  336   50    3  11.29733  13.35410  19.04473
  337   50    3  10.47428  12.94367  19.43734
  338   50    3   9.65123  12.53325  19.82995

Bonds

    1    1    2    3
    2    2    3    4
    3    2    4    5
    4    2    5    6
    5    2    6    7
    6    2    7    8
    7    1    9   10
    8    2   10   11
    9    2   11   12
   10    2   12   13
   11    2   13   14
   12    2   14   15
   13    1   16   17
   14    2   17   18
   15    2   18   19
   16    2   19   20
   17    2   20   21
   18    2   21   22
   19    1   23   24
   20    2   24   25
   21    2   25   26
   22    2   26   27
   23    2   27   28
   24    2   28   29
   25    1   30   31
   26    2   31   32
   27    2   32   33
   28    2   33   34
   29    2   34   35
   30    2   35   36
   31    1   37   38
   32    2   38   39
   33    2   39   40
   34    2   40   41
   35    2   41   42
   36    2   42   43
   37    1   44   45
   38    2   45   46
   39    2   46   47
   40    2   47   48
   41    2   48   49
   42    2   49   50
   43    1   51   52
   44    2   52   53
   45    2   53   54
   46    2   54   55
   47    2   55   56
   48    2   56   57
   49    1   58   59
   50    2   59   60
   51    2   60   61
   52    2   61   62
   53    2   62   63
   54    2   63   64
   55    1   65   66
   56    2   66   67
   57    2   67   68
   58    2   68   69
   59    2   69   70
   60    2   70   71
   61    1   72   73
   62    2   73   74
   63    2   74   75
   64    2   75   76
   65    2   76   77
   66    2   77   78
   67    1   79   80
   68    2   80   81
   69    2   81   82
   70    2   82   83
   71    2   83   84
   72    2   84   85
   73    1   86   87
   74    2   87   88
   75    2   88   89
   76    2   89   90
   77    2   90   91
   78    2   91   92
   79    1   93   94
   80    2   94   95
   81    2   95   96
   82    2   96   97
   83    2   97   98
   84    2   98   99
   85    1  100  101
   86    2  101  102
   87    2  102  103
   88    2  103  104
   89    2  104  105
   90    2  105  106
   91    1  107  108
   92    2  108  109
   93    2  109  110
   94    2  110  111
   95    2  111  112
   96    2  112  113
   97    1  114  115
   98    2  115  116
   99    2  116  117
  100    2  117  118
  101    2  118  119
  102    2  119  120
  103    1  121  122
  104    2  122  123
  105    2  123  124
  106    2  124  125
  107    2  125  126
  108    2  126  127
  109    1  128  129
  110    2  129  130
  111    2  130  131
  112    2  131  132
  113    2  132  133
  114    2  133  134
  115    1  135  136
  116    2  136  137
  117    2  137  138
  118    2  138  139
  119    2  139  140
  120    2  140  141
  121    1  142  143
  122    2  143  144
  123    2  144  145
  124    2  145  146
  125    2  146  147
  126    2  147  148
  127    1  149  150
  128    2  150  151
  129    2  151  152
  130    2  152  153
  131    2  153  154
  132    2  154  155
  133    1  156  157
  134    2  157  158
  135    2  158  159
  136    2  159  160
  137    2  160  161
  138    2  161  162
  139    1  163  164
  140    2  164  165
  141    2  165  166
  142    2  166  167
  143    2  167  168
  144    2  168  169
  145    1  171  172
  146    2  172  173
  147    2  173  174
  148    2  174  175
  149    2  175  176
  150    2  176  177
  151    1  178  179
  152    2  179  180
  153    2  180  181
  154    2  181  182
  155    2  182  183
  156    2  183  184
  157    1  185  186
  158    2  186  187
  159    2  187  188
  160    2  188  189
  161    2  189  190
  162    2  190  191
  163    1  192  193
  164    2  193  194
  165    2  194  195
  166    2  195  196
  167    2  196  197
  168    2  197  198
  169    1  199  200
  170    2  200  201
  171    2  201  202
  172    2  202  203
  173    2  203  204
  174    2  204  205
  175    1  206  207
  176    2  207  208
  177    2  208  209
  178    2  209  210
  179    2  210  211
  180    2  211  212
  181    1  213  214
  182    2  214  215
  183    2  215  216
  184    2  216  217
  185    2  217  218
  186    2  218  219
  187    1  220  221
  188    2  221  222
  189    2  222  223
  190    2  223  224
  191    2  224  225
  192    2  225  226
  193    1  227  228
  194    2  228  229
  195    2  229  230
  196    2  230  231
  197    2  231  232
  198    2  232  233
  199    1  234  235
  200    2  235  236
  201    2  236  237
  202    2  237  238
  203    2  238  239
  204    2  239  240
  205    1  241  242
  206    2  242  243
  207    2  243  244
  208    2  244  245
  209    2  245  246
  210    2  246  247
  211    1  248  249
  212    2  249  250
  213    2  250  251
  214    2  251  252
  215    2  252  253
  216    2  253  254
  217    1  255  256
  218    2  256  257
  219    2  257  258
  220    2  258  259
  221    2  259  260
  222    2  260  261
  223    1  262  263
  224    2  263  264
  225    2  264  265
  226    2  265  266
  227    2  266  267
  228    2  267  268
  229    1  269  270
  230    2  270  271
  231    2  271  272
  232    2  272  273
  233    2  273  274
  234    2  274  275
  235    1  276  277
  236    2  277  278
  237    2  278  279
  238    2  279  280
  239    2  280  281
  240    2  281  282
  241    1  283  284
  242    2  284  285
  243    2  285  286
  244    2  286  287
  245    2  287  288
  246    2  288  289
  247    1  290  291
  248    2  291  292
  249    2  292  293
  250    2  293  294
  251    2  294  295
  252    2  295  296
  253    1  297  298
  254    2  298  299
  255    2  299  300
  256    2  300  301
  257    2  301  302
  258    2  302  303
  259    1  304  305
  260    2  305  306
  261    2  306  307
  262    2  307  308
  263    2  308  309
  264    2  309  310
  265    1  311  312
  266    2  312  313
  267    2  313  314
  268    2  314  315
  269    2  315  316
  270    2  316  317
  271    1  318  319
  272    2  319  320
  273    2  320  321
  274    2  321  322
  275    2  322  323
  276    2  323  324
  277    1  325  326
  278    2  326  327
  279    2  327  328
  280    2  328  329
  281    2  329  330
  282    2  330  331
  283    1  332  333
  284    2  333  334
  285    2  334  335
  286    2  335  336
  287    2  336  337
  288    2  337  338
